                               Psi4 1.7 release

  ==> Input File <==

--------------------------------------------------------------------------
molecule water_dimer {
    0 1
 C   -3.794947367454    0.447388712628    1.782117979176
 H   -3.116947367454    0.417388712628    0.936117979176
 C   -3.079947367454   -0.189611287372    2.980117979176
 H   -3.656947367454    0.000388712628    3.885117979176
 H   -3.043947367454   -1.272611287372    2.822117979176
 C   -1.663947367454    0.362388712628    3.132117979176
 H   -1.193947367454   -0.126611287372    3.988117979176
 H   -1.094947367454    0.152388712628    2.216117979176
 H   -1.716947367454    1.445388712628    3.296117979176
 H   -4.717057367454   -0.113771287372    1.570427979176
 H   -4.053713367454    1.505588712628    1.934627979176
    --
    0 1
 C    1.557052632546   -0.992611287372   -2.697882020824
 O    1.911052632546   -1.970611287372   -2.060882020824
 N    1.133052632546    0.132388712628   -2.093882020824
 C    1.046052632546    0.445388712628   -0.687882020824
 C    0.327052632546    1.779388712628   -0.523882020824
 C    2.401052632546    0.545388712628   -0.072882020824
 C    0.288052632546   -0.560611287372    0.118117979176
 H    0.829052632546    0.878388712628   -2.666882020824
 H    0.863052632546    2.560388712628   -1.070882020824
 H   -0.680947367454    1.653388712628   -0.930882020824
 H    0.272052632546    2.035388712628    0.542117979176
 H    0.762052632546   -1.528611287372   -0.003882020824
 H    0.326052632546   -0.236611287372    1.165117979176
 H   -0.716947367454   -0.543611287372   -0.263882020824
 H    2.243052632546    0.765388712628    0.980117979176
 H    2.925052632546    1.338388712628   -0.578882020824
 H    2.887052632546   -0.417611287372   -0.206882020824
 H    1.575032632546   -0.951611287372   -3.796971020824

    units angstrom
    no_reorient
    symmetry c1
}

set {
reference     rhf
scf_type      df
basis         def2-svp
df_basis_scf  def2-universal-jkfit
df_basis_sapt def2-universal-jkfit
df_basis_elst def2-universal-jkfit
guess         sad
}

energy('fisapt0-d3mbj')
--------------------------------------------------------------------------

    Molecular point group: c1

    Geometry (in Angstrom), charge = 0, multiplicity = 1:

       Center              X                  Y                   Z               Mass
    ------------   -----------------  -----------------  -----------------  -----------------
         C           -3.794947367438     0.447388712620     1.782117979156    12.000000000000
         H           -3.116947367438     0.417388712620     0.936117979156     1.007825032230
         C           -3.079947367438    -0.189611287380     2.980117979156    12.000000000000
         H           -3.656947367438     0.000388712620     3.885117979156     1.007825032230
         H           -3.043947367438    -1.272611287380     2.822117979156     1.007825032230
         C           -1.663947367438     0.362388712620     3.132117979156    12.000000000000
         H           -1.193947367438    -0.126611287380     3.988117979156     1.007825032230
         H           -1.094947367438     0.152388712620     2.216117979156     1.007825032230
         H           -1.716947367438     1.445388712620     3.296117979156     1.007825032230
         H           -4.717057367438    -0.113771287380     1.570427979156     1.007825032230
         H           -4.053713367438     1.505588712620     1.934627979156     1.007825032230
         C            1.557052632562    -0.992611287380    -2.697882020844    12.000000000000
         O            1.911052632562    -1.970611287380    -2.060882020844    15.994914619570
         N            1.133052632562     0.132388712620    -2.093882020844    14.003074004430
         C            1.046052632562     0.445388712620    -0.687882020844    12.000000000000
         C            0.327052632562     1.779388712620    -0.523882020844    12.000000000000
         C            2.401052632562     0.545388712620    -0.072882020844    12.000000000000
         C            0.288052632562    -0.560611287380     0.118117979156    12.000000000000
         H            0.829052632562     0.878388712620    -2.666882020844     1.007825032230
         H            0.863052632562     2.560388712620    -1.070882020844     1.007825032230
         H           -0.680947367438     1.653388712620    -0.930882020844     1.007825032230
         H            0.272052632562     2.035388712620     0.542117979156     1.007825032230
         H            0.762052632562    -1.528611287380    -0.003882020844     1.007825032230
         H            0.326052632562    -0.236611287380     1.165117979156     1.007825032230
         H           -0.716947367438    -0.543611287380    -0.263882020844     1.007825032230
         H            2.243052632562     0.765388712620     0.980117979156     1.007825032230
         H            2.925052632562     1.338388712620    -0.578882020844     1.007825032230
         H            2.887052632562    -0.417611287380    -0.206882020844     1.007825032230
         H            1.575032632562    -0.951611287380    -3.796971020844     1.007825032230

  Charge       = 0
  Multiplicity = 1
  Basis Set: DEF2-SVP
    Blend: DEF2-SVP
  Basis Set: DEF2-UNIVERSAL-JKFIT
    Blend: DEF2-UNIVERSAL-JKFIT

    Orbital Energies [Eh]
    ---------------------

    Doubly Occupied:

       1A    -20.512519     2A    -15.583478     3A    -11.354769
       4A    -11.264215     5A    -11.234707     6A    -11.219871
       7A    -11.217864     8A    -11.216886     9A    -11.209035
      10A    -11.206967    11A     -1.364388    12A     -1.236588
      13A     -1.083622    14A     -1.045776    15A     -0.942781
      16A     -0.930278    17A     -0.914762    18A     -0.857746
      19A     -0.791192    20A     -0.757544    21A     -0.727687
      22A     -0.653707    23A     -0.631880    24A     -0.627654
      25A     -0.615093    26A     -0.600936    27A     -0.598715
      28A     -0.582540    29A     -0.558932    30A     -0.554825
      31A     -0.544688    32A     -0.531575    33A     -0.523568
      34A     -0.515003    35A     -0.480481    36A     -0.477425
      37A     -0.474794    38A     -0.472212    39A     -0.467120
      40A     -0.421884    41A     -0.387515

  @DF-RHF Final Energy:  -442.99228400607183

   => Energetics <=

    Nuclear Repulsion Energy =            553.8724552666568570
    One-Electron Energy =               -1698.9430309235256118
    Two-Electron Energy =                 702.0782916507968139
    Total Energy =                       -442.9922840060718272
 Dipole X            :         10.0786321          -10.5967907           -0.5181586
 Dipole Y            :         -5.6906727            7.0787524            1.3880797
 Dipole Z            :        -13.3383270           12.9491693           -0.3891577
 Magnitude           :                                                    1.5318934
  Basis Set: DEF2-UNIVERSAL-JKFIT
    Blend: DEF2-UNIVERSAL-JKFIT

    SAPT Results
  --------------------------------------------------------------------------------------------------------
    Electrostatics                 -2.72923620 [mEh]      -1.71262157 [kcal/mol]      -7.16560866 [kJ/mol]
      Elst10,r                     -2.72923620 [mEh]      -1.71262157 [kcal/mol]      -7.16560866 [kJ/mol]

    Exchange                        9.31590887 [mEh]       5.84582107 [kcal/mol]      24.45891536 [kJ/mol]
      Exch10                        9.31590887 [mEh]       5.84582107 [kcal/mol]      24.45891536 [kJ/mol]
      Exch10(S^2)                   9.24134617 [mEh]       5.79903227 [kcal/mol]      24.26315104 [kJ/mol]

    Induction                      -1.05771109 [mEh]      -0.66372373 [kcal/mol]      -2.77702008 [kJ/mol]
      Ind20,r                      -1.58011974 [mEh]      -0.99154011 [kcal/mol]      -4.14860380 [kJ/mol]
      Exch-Ind20,r                  1.25381048 [mEh]       0.78677796 [kcal/mol]       3.29187897 [kJ/mol]
      delta HF,r (2)               -0.73140183 [mEh]      -0.45896158 [kcal/mol]      -1.92029524 [kJ/mol]
      Induction (A<-B)             -0.39905457 [mEh]      -0.25041053 [kcal/mol]      -1.04771764 [kJ/mol]
      Induction (B<-A)             -0.65865651 [mEh]      -0.41331320 [kcal/mol]      -1.72930243 [kJ/mol]

    Dispersion                      0.00000000 [mEh]       0.00000000 [kcal/mol]       0.00000000 [kJ/mol]
      Disp20                        0.00000000 [mEh]       0.00000000 [kcal/mol]       0.00000000 [kJ/mol]
      Exch-Disp20                   0.00000000 [mEh]       0.00000000 [kcal/mol]       0.00000000 [kJ/mol]

  Total HF                          5.52896158 [mEh]       3.46947577 [kcal/mol]      14.51628663 [kJ/mol]
  Total SAPT0                       5.52896158 [mEh]       3.46947577 [kcal/mol]      14.51628663 [kJ/mol]

  --------------------------------------------------------------------------------------------------------

*** Psi4 exiting successfully. Buy a developer a beer!
